TITLE = "MyDevice"
VARIABLES = "x", "Acceptors", "AtContactNode", "ContactSurfaceArea", "Donors", "ElectronGeneration", "ElectronGeneration:Electrons", "ElectronGeneration:Holes", "Electrons", "Electrons_prev", "HoleGeneration", "HoleGeneration:Electrons", "HoleGeneration:Holes", "Holes", "Holes_prev", "IntrinsicCharge", "IntrinsicCharge:Potential", "IntrinsicElectrons", "IntrinsicElectrons:Potential", "IntrinsicHoles", "IntrinsicHoles:Potential", "NCharge", "NCharge:Electrons", "NetDoping", "NodeVolume", "PCharge", "PCharge:Holes", "Potential", "PotentialIntrinsicCharge", "PotentialIntrinsicCharge:Potential", "PotentialNodeCharge", "PotentialNodeCharge:Electrons", "PotentialNodeCharge:Holes", "Potential_prev", "SurfaceArea", "USRH", "USRH:Electrons", "USRH:Holes", "botnodeelectrons", "botnodeelectrons:Electrons", "botnodeholes", "botnodeholes:Holes", "botnodemodel", "botnodemodel:Potential", "contactcharge_node", "coordinate_index", "node_index", "topnodeelectrons", "topnodeelectrons:Electrons", "topnodeholes", "topnodeholes:Holes", "topnodemodel", "topnodemodel:Potential", "Bern01", "Bern01:Potential@n0", "Bern01:Potential@n1", "EdgeCouple", "EdgeInverseLength", "EdgeLength", "ElectricField", "ElectricField:Potential@n0", "ElectricField:Potential@n1", "ElectronCurrent", "ElectronCurrent:Electrons@n0", "ElectronCurrent:Electrons@n1", "ElectronCurrent:Holes@n0", "ElectronCurrent:Holes@n1", "ElectronCurrent:Potential@n0", "ElectronCurrent:Potential@n1", "Electrons@n0", "Electrons@n1", "HoleCurrent", "HoleCurrent:Electrons@n0", "HoleCurrent:Electrons@n1", "HoleCurrent:Holes@n0", "HoleCurrent:Holes@n1", "HoleCurrent:Potential@n0", "HoleCurrent:Potential@n1", "Holes@n0", "Holes@n1", "Potential@n0", "Potential@n1", "PotentialEdgeFlux", "PotentialEdgeFlux:Potential@n0", "PotentialEdgeFlux:Potential@n1", "contactcharge_edge", "contactcharge_edge:Potential@n0", "contactcharge_edge:Potential@n1", "edge_index", "unitx", "vdiff", "vdiff:Potential@n0", "vdiff:Potential@n1"
ZONE T="MyRegion" NODES=465, ELEMENTS=464, DATAPACKING=BLOCK, ZONETYPE=FELINESEG
0 1e-07 1.9802e-07 2.94098e-07 3.88274e-07 4.80584e-07 5.71067e-07 6.59758e-07 7.46692e-07 8.31904e-07 9.15429e-07 9.973e-07 1.07755e-06 1.15621e-06 1.23331e-06 1.30889e-06 1.38297e-06 1.45558e-06 1.52675e-06 1.59652e-06 1.6649e-06 1.73193e-06 1.79763e-06 1.86203e-06 1.92515e-06 1.98703e-06 2.04768e-06 2.10712e-06 2.16539e-06 2.22251e-06 2.2785e-06 2.33337e-06 2.38716e-06 2.43989e-06 2.49157e-06 2.54223e-06 2.59188e-06 2.64055e-06 2.68826e-06 2.73502e-06 2.78085e-06 2.82578e-06 2.86982e-06 2.91299e-06 2.9553e-06 2.99677e-06 3.03742e-06 3.07727e-06 3.11633e-06 3.15461e-06 3.19214e-06 3.22892e-06 3.26498e-06 3.30032e-06 3.33496e-06 3.36891e-06 3.40219e-06 3.43482e-06 3.46679e-06 3.49814e-06 3.52886e-06 3.55898e-06 3.58849e-06 3.61743e-06 3.64579e-06 3.67359e-06 3.70084e-06 3.72754e-06 3.75372e-06 3.77939e-06 3.80454e-06 3.82919e-06 3.85336e-06 3.87705e-06 3.90027e-06 3.92303e-06 3.94534e-06 3.9672e-06 3.98864e-06 4.00965e-06 4.03024e-06 4.05042e-06 4.07021e-06 4.0896e-06 4.10861e-06 4.12725e-06 4.14551e-06 4.16341e-06 4.18096e-06 4.19816e-06 4.21502e-06 4.23155e-06 4.24775e-06 4.26362e-06 4.27919e-06 4.29444e-06 4.30939e-06 4.32405e-06 4.33842e-06 4.3525e-06 4.3663e-06 4.37983e-06 4.3931e-06 4.40609e-06 4.41884e-06 4.43133e-06 4.44357e-06 4.45557e-06 4.46733e-06 4.47886e-06 4.49016e-06 4.50124e-06 4.5121e-06 4.52274e-06 4.53317e-06 4.54339e-06 4.55342e-06 4.56324e-06 4.57287e-06 4.58231e-06 4.59156e-06 4.60063e-06 4.60952e-06 4.61823e-06 4.62677e-06 4.63515e-06 4.64335e-06 4.6514e-06 4.65928e-06 4.66701e-06 4.67458e-06 4.68201e-06 4.68928e-06 4.69642e-06 4.70341e-06 4.71026e-06 4.71698e-06 4.72357e-06 4.73002e-06 4.73635e-06 4.74255e-06 4.74863e-06 4.75459e-06 4.76043e-06 4.76615e-06 4.77176e-06 4.77726e-06 4.78266e-06 4.78794e-06 4.79312e-06 4.7982e-06 4.80317e-06 4.80805e-06 4.81283e-06 4.81752e-06 4.82211e-06 4.82662e-06 4.83103e-06 4.83536e-06 4.8396e-06 4.84375e-06 4.84783e-06 4.85182e-06 4.85574e-06 4.85957e-06 4.86334e-06 4.86702e-06 4.87064e-06 4.87418e-06 4.87765e-06 4.88105e-06 4.88439e-06 4.88766e-06 4.89086e-06 4.89401e-06 4.89709e-06 4.9001e-06 4.90306e-06 4.90596e-06 4.9088e-06 4.91159e-06 4.91432e-06 4.917e-06 4.91962e-06 4.92219e-06 4.92472e-06 4.92719e-06 4.92961e-06 4.93198e-06 4.93431e-06 4.93659e-06 4.93883e-06 4.94102e-06 4.94317e-06 4.94527e-06 4.94734e-06 4.94936e-06 4.95134e-06 4.95329e-06 4.95519e-06 4.95706e-06 4.95889e-06 4.96068e-06 4.96244e-06 4.96417e-06 4.96586e-06 4.96751e-06 4.96914e-06 4.97073e-06 4.97229e-06 4.97382e-06 4.97532e-06 4.97679e-06 4.97823e-06 4.97964e-06 4.98102e-06 4.98238e-06 4.98371e-06 4.98501e-06 4.98629e-06 4.98754e-06 4.98876e-06 4.98997e-06 4.99115e-06 4.9923e-06 4.99343e-06 4.99454e-06 4.99563e-06 4.9967e-06 4.99774e-06 4.99877e-06 4.99977e-06 5e-06 5.001e-06 5.00202e-06 5.00306e-06 5.00412e-06 5.00521e-06 5.00631e-06 5.00744e-06 5.00859e-06 5.00976e-06 5.01096e-06 5.01218e-06 5.01343e-06 5.0147e-06 5.016e-06 5.01732e-06 5.01867e-06 5.02005e-06 5.02145e-06 5.02288e-06 5.02435e-06 5.02584e-06 5.02736e-06 5.02891e-06 5.0305e-06 5.03211e-06 5.03376e-06 5.03544e-06 5.03716e-06 5.03891e-06 5.0407e-06 5.04252e-06 5.04438e-06 5.04628e-06 5.04821e-06 5.05019e-06 5.0522e-06 5.05425e-06 5.05635e-06 5.05849e-06 5.06067e-06 5.0629e-06 5.06517e-06 5.06748e-06 5.06985e-06 5.07226e-06 5.07472e-06 5.07723e-06 5.07979e-06 5.0824e-06 5.08506e-06 5.08778e-06 5.09056e-06 5.09339e-06 5.09627e-06 5.09922e-06 5.10222e-06 5.10529e-06 5.10842e-06 5.11161e-06 5.11486e-06 5.11818e-06 5.12157e-06 5.12503e-06 5.12855e-06 5.13215e-06 5.13582e-06 5.13956e-06 5.14338e-06 5.14728e-06 5.15125e-06 5.15531e-06 5.15945e-06 5.16367e-06 5.16798e-06 5.17237e-06 5.17685e-06 5.18143e-06 5.18609e-06 5.19085e-06 5.19571e-06 5.20066e-06 5.20572e-06 5.21087e-06 5.21613e-06 5.2215e-06 5.22697e-06 5.23256e-06 5.23826e-06 5.24407e-06 5.25e-06 5.25606e-06 5.26223e-06 5.26853e-06 5.27495e-06 5.28151e-06 5.2882e-06 5.29502e-06 5.30198e-06 5.30908e-06 5.31632e-06 5.32372e-06 5.33126e-06 5.33895e-06 5.3468e-06 5.3548e-06 5.36297e-06 5.37131e-06 5.37981e-06 5.38848e-06 5.39733e-06 5.40636e-06 5.41557e-06 5.42496e-06 5.43455e-06 5.44433e-06 5.45431e-06 5.46449e-06 5.47487e-06 5.48546e-06 5.49627e-06 5.5073e-06 5.51855e-06 5.53003e-06 5.54173e-06 5.55368e-06 5.56587e-06 5.5783e-06 5.59098e-06 5.60392e-06 5.61712e-06 5.63059e-06 5.64433e-06 5.65835e-06 5.67265e-06 5.68724e-06 5.70213e-06 5.71731e-06 5.73281e-06 5.74861e-06 5.76474e-06 5.78119e-06 5.79797e-06 5.81509e-06 5.83256e-06 5.85038e-06 5.86857e-06 5.88711e-06 5.90604e-06 5.92534e-06 5.94504e-06 5.96513e-06 5.98563e-06 6.00655e-06 6.02788e-06 6.04965e-06 6.07186e-06 6.09451e-06 6.11763e-06 6.14121e-06 6.16526e-06 6.18981e-06 6.21485e-06 6.24039e-06 6.26645e-06 6.29304e-06 6.32016e-06 6.34784e-06 6.37607e-06 6.40487e-06 6.43425e-06 6.46423e-06 6.49482e-06 6.52602e-06 6.55785e-06 6.59032e-06 6.62345e-06 6.65726e-06 6.69174e-06 6.72692e-06 6.76281e-06 6.79943e-06 6.83678e-06 6.87489e-06 6.91377e-06 6.95344e-06 6.99391e-06 7.03519e-06 7.07731e-06 7.12028e-06 7.16412e-06 7.20884e-06 7.25447e-06 7.30102e-06 7.34851e-06 7.39696e-06 7.44639e-06 7.49681e-06 7.54826e-06 7.60074e-06 7.65429e-06 7.70892e-06 7.76465e-06 7.82151e-06 7.87951e-06 7.93869e-06 7.99906e-06 8.06066e-06 8.12349e-06 8.1876e-06 8.253e-06 8.31973e-06 8.3878e-06 8.45725e-06 8.5281e-06 8.60038e-06 8.67412e-06 8.74936e-06 8.82611e-06 8.90441e-06 8.9843e-06 9.06579e-06 9.14894e-06 9.23377e-06 9.32031e-06 9.40859e-06 9.49866e-06 9.59056e-06 9.6843e-06 9.77995e-06 9.87752e-06 9.97707e-06 1e-05
1e+18 1e+18 1e+18 1e+18 1e+18 1e+18 1e+18 1e+18 1e+18 1e+18 1e+18 1e+18 1e+18 1e+18 1e+18 1e+18 1e+18 1e+18 1e+18 1e+18 1e+18 1e+18 1e+18 1e+18 1e+18 1e+18 1e+18 1e+18 1e+18 1e+18 1e+18 1e+18 1e+18 1e+18 1e+18 1e+18 1e+18 1e+18 1e+18 1e+18 1e+18 1e+18 1e+18 1e+18 1e+18 1e+18 1e+18 1e+18 1e+18 1e+18 1e+18 1e+18 1e+18 1e+18 1e+18 1e+18 1e+18 1e+18 1e+18 1e+18 1e+18 1e+18 1e+18 1e+18 1e+18 1e+18 1e+18 1e+18 1e+18 1e+18 1e+18 1e+18 1e+18 1e+18 1e+18 1e+18 1e+18 1e+18 1e+18 1e+18 1e+18 1e+18 1e+18 1e+18 1e+18 1e+18 1e+18 1e+18 1e+18 1e+18 1e+18 1e+18 1e+18 1e+18 1e+18 1e+18 1e+18 1e+18 1e+18 1e+18 1e+18 1e+18 1e+18 1e+18 1e+18 1e+18 1e+18 1e+18 1e+18 1e+18 1e+18 1e+18 1e+18 1e+18 1e+18 1e+18 1e+18 1e+18 1e+18 1e+18 1e+18 1e+18 1e+18 1e+18 1e+18 1e+18 1e+18 1e+18 1e+18 1e+18 1e+18 1e+18 1e+18 1e+18 1e+18 1e+18 1e+18 1e+18 1e+18 1e+18 1e+18 1e+18 1e+18 1e+18 1e+18 1e+18 1e+18 1e+18 1e+18 1e+18 1e+18 1e+18 1e+18 1e+18 1e+18 1e+18 1e+18 1e+18 1e+18 1e+18 1e+18 1e+18 1e+18 1e+18 1e+18 1e+18 1e+18 1e+18 1e+18 1e+18 1e+18 1e+18 1e+18 1e+18 1e+18 1e+18 1e+18 1e+18 1e+18 1e+18 1e+18 1e+18 1e+18 1e+18 1e+18 1e+18 1e+18 1e+18 1e+18 1e+18 1e+18 1e+18 1e+18 1e+18 1e+18 1e+18 1e+18 1e+18 1e+18 1e+18 1e+18 1e+18 1e+18 1e+18 1e+18 1e+18 1e+18 1e+18 1e+18 1e+18 1e+18 1e+18 1e+18 1e+18 1e+18 1e+18 1e+18 1e+18 1e+18 1e+18 1e+18 1e+18 1e+18 1e+18 1e+18 1e+18 1e+18 1e+18 1e+18 1e+18 1e+18 1e+18 1e+18 0 0 0 0 0 0 0 0 0 0 0 0 0 0 0 0 0 0 0 0 0 0 0 0 0 0 0 0 0 0 0 0 0 0 0 0 0 0 0 0 0 0 0 0 0 0 0 0 0 0 0 0 0 0 0 0 0 0 0 0 0 0 0 0 0 0 0 0 0 0 0 0 0 0 0 0 0 0 0 0 0 0 0 0 0 0 0 0 0 0 0 0 0 0 0 0 0 0 0 0 0 0 0 0 0 0 0 0 0 0 0 0 0 0 0 0 0 0 0 0 0 0 0 0 0 0 0 0 0 0 0 0 0 0 0 0 0 0 0 0 0 0 0 0 0 0 0 0 0 0 0 0 0 0 0 0 0 0 0 0 0 0 0 0 0 0 0 0 0 0 0 0 0 0 0 0 0 0 0 0 0 0 0 0 0 0 0 0 0 0 0 0 0 0 0 0 0 0 0 0 0 0 0 0 0 0 0 0 0 0 0 0 0 0 0 0 0 0 0 0 0 0 0 0 0 0 0 0 0 0 0 0
1 0 0 0 0 0 0 0 0 0 0 0 0 0 0 0 0 0 0 0 0 0 0 0 0 0 0 0 0 0 0 0 0 0 0 0 0 0 0 0 0 0 0 0 0 0 0 0 0 0 0 0 0 0 0 0 0 0 0 0 0 0 0 0 0 0 0 0 0 0 0 0 0 0 0 0 0 0 0 0 0 0 0 0 0 0 0 0 0 0 0 0 0 0 0 0 0 0 0 0 0 0 0 0 0 0 0 0 0 0 0 0 0 0 0 0 0 0 0 0 0 0 0 0 0 0 0 0 0 0 0 0 0 0 0 0 0 0 0 0 0 0 0 0 0 0 0 0 0 0 0 0 0 0 0 0 0 0 0 0 0 0 0 0 0 0 0 0 0 0 0 0 0 0 0 0 0 0 0 0 0 0 0 0 0 0 0 0 0 0 0 0 0 0 0 0 0 0 0 0 0 0 0 0 0 0 0 0 0 0 0 0 0 0 0 0 0 0 0 0 0 0 0 0 0 0 0 0 0 0 0 0 0 0 0 0 0 0 0 0 0 0 0 0 0 0 0 0 0 0 0 0 0 0 0 0 0 0 0 0 0 0 0 0 0 0 0 0 0 0 0 0 0 0 0 0 0 0 0 0 0 0 0 0 0 0 0 0 0 0 0 0 0 0 0 0 0 0 0 0 0 0 0 0 0 0 0 0 0 0 0 0 0 0 0 0 0 0 0 0 0 0 0 0 0 0 0 0 0 0 0 0 0 0 0 0 0 0 0 0 0 0 0 0 0 0 0 0 0 0 0 0 0 0 0 0 0 0 0 0 0 0 0 0 0 0 0 0 0 0 0 0 0 0 0 0 0 0 0 0 0 0 0 0 0 0 0 0 0 0 0 0 0 0 0 0 0 0 0 0 0 0 0 0 0 0 0 0 0 0 0 0 0 0 0 0 0 0 0 0 0 0 0 0 0 0 0 0 0 0 0 0 0 0 0 0 0 0 0 0 0 0 0 0 0 0 0 0 0 0 0 0 0 0 0 0 0 0 0 0 0 0 0 0 1
1 0 0 0 0 0 0 0 0 0 0 0 0 0 0 0 0 0 0 0 0 0 0 0 0 0 0 0 0 0 0 0 0 0 0 0 0 0 0 0 0 0 0 0 0 0 0 0 0 0 0 0 0 0 0 0 0 0 0 0 0 0 0 0 0 0 0 0 0 0 0 0 0 0 0 0 0 0 0 0 0 0 0 0 0 0 0 0 0 0 0 0 0 0 0 0 0 0 0 0 0 0 0 0 0 0 0 0 0 0 0 0 0 0 0 0 0 0 0 0 0 0 0 0 0 0 0 0 0 0 0 0 0 0 0 0 0 0 0 0 0 0 0 0 0 0 0 0 0 0 0 0 0 0 0 0 0 0 0 0 0 0 0 0 0 0 0 0 0 0 0 0 0 0 0 0 0 0 0 0 0 0 0 0 0 0 0 0 0 0 0 0 0 0 0 0 0 0 0 0 0 0 0 0 0 0 0 0 0 0 0 0 0 0 0 0 0 0 0 0 0 0 0 0 0 0 0 0 0 0 0 0 0 0 0 0 0 0 0 0 0 0 0 0 0 0 0 0 0 0 0 0 0 0 0 0 0 0 0 0 0 0 0 0 0 0 0 0 0 0 0 0 0 0 0 0 0 0 0 0 0 0 0 0 0 0 0 0 0 0 0 0 0 0 0 0 0 0 0 0 0 0 0 0 0 0 0 0 0 0 0 0 0 0 0 0 0 0 0 0 0 0 0 0 0 0 0 0 0 0 0 0 0 0 0 0 0 0 0 0 0 0 0 0 0 0 0 0 0 0 0 0 0 0 0 0 0 0 0 0 0 0 0 0 0 0 0 0 0 0 0 0 0 0 0 0 0 0 0 0 0 0 0 0 0 0 0 0 0 0 0 0 0 0 0 0 0 0 0 0 0 0 0 0 0 0 0 0 0 0 0 0 0 0 0 0 0 0 0 0 0 0 0 0 0 0 0 0 0 0 0 0 0 0 0 0 0 0 0 0 0 0 0 0 0 0 0 0 0 0 0 0 0 0 0 0 0 0 0 0 0 0 0 0 1
0 0 0 0 0 0 0 0 0 0 0 0 0 0 0 0 0 0 0 0 0 0 0 0 0 0 0 0 0 0 0 0 0 0 0 0 0 0 0 0 0 0 0 0 0 0 0 0 0 0 0 0 0 0 0 0 0 0 0 0 0 0 0 0 0 0 0 0 0 0 0 0 0 0 0 0 0 0 0 0 0 0 0 0 0 0 0 0 0 0 0 0 0 0 0 0 0 0 0 0 0 0 0 0 0 0 0 0 0 0 0 0 0 0 0 0 0 0 0 0 0 0 0 0 0 0 0 0 0 0 0 0 0 0 0 0 0 0 0 0 0 0 0 0 0 0 0 0 0 0 0 0 0 0 0 0 0 0 0 0 0 0 0 0 0 0 0 0 0 0 0 0 0 0 0 0 0 0 0 0 0 0 0 0 0 0 0 0 0 0 0 0 0 0 0 0 0 0 0 0 0 0 0 0 0 0 0 0 0 0 0 0 0 0 0 0 0 0 0 0 0 0 0 0 0 0 0 0 0 0 0 0 1e+18 1e+18 1e+18 1e+18 1e+18 1e+18 1e+18 1e+18 1e+18 1e+18 1e+18 1e+18 1e+18 1e+18 1e+18 1e+18 1e+18 1e+18 1e+18 1e+18 1e+18 1e+18 1e+18 1e+18 1e+18 1e+18 1e+18 1e+18 1e+18 1e+18 1e+18 1e+18 1e+18 1e+18 1e+18 1e+18 1e+18 1e+18 1e+18 1e+18 1e+18 1e+18 1e+18 1e+18 1e+18 1e+18 1e+18 1e+18 1e+18 1e+18 1e+18 1e+18 1e+18 1e+18 1e+18 1e+18 1e+18 1e+18 1e+18 1e+18 1e+18 1e+18 1e+18 1e+18 1e+18 1e+18 1e+18 1e+18 1e+18 1e+18 1e+18 1e+18 1e+18 1e+18 1e+18 1e+18 1e+18 1e+18 1e+18 1e+18 1e+18 1e+18 1e+18 1e+18 1e+18 1e+18 1e+18 1e+18 1e+18 1e+18 1e+18 1e+18 1e+18 1e+18 1e+18 1e+18 1e+18 1e+18 1e+18 1e+18 1e+18 1e+18 1e+18 1e+18 1e+18 1e+18 1e+18 1e+18 1e+18 1e+18 1e+18 1e+18 1e+18 1e+18 1e+18 1e+18 1e+18 1e+18 1e+18 1e+18 1e+18 1e+18 1e+18 1e+18 1e+18 1e+18 1e+18 1e+18 1e+18 1e+18 1e+18 1e+18 1e+18 1e+18 1e+18 1e+18 1e+18 1e+18 1e+18 1e+18 1e+18 1e+18 1e+18 1e+18 1e+18 1e+18 1e+18 1e+18 1e+18 1e+18 1e+18 1e+18 1e+18 1e+18 1e+18 1e+18 1e+18 1e+18 1e+18 1e+18 1e+18 1e+18 1e+18 1e+18 1e+18 1e+18 1e+18 1e+18 1e+18 1e+18 1e+18 1e+18 1e+18 1e+18 1e+18 1e+18 1e+18 1e+18 1e+18 1e+18 1e+18 1e+18 1e+18 1e+18 1e+18 1e+18 1e+18 1e+18 1e+18 1e+18 1e+18 1e+18 1e+18 1e+18 1e+18 1e+18 1e+18 1e+18 1e+18 1e+18 1e+18 1e+18 1e+18 1e+18 1e+18 1e+18 1e+18 1e+18 1e+18 1e+18 1e+18 1e+18 1e+18 1e+18 1e+18 1e+18 1e+18 1e+18 1e+18 1e+18 1e+18 1e+18 1e+18 1e+18 1e+18 1e+18 1e+18 1e+18 1e+18 1e+18 1e+18 1e+18 1e+18
-0 -0.0114061 -0.0225871 -0.0335476 -0.0442922 -0.0548256 -0.0651525 -0.0752778 -0.0852062 -0.0949427 -0.104493 -0.113861 -0.123054 -0.132076 -0.140935 -0.149637 -0.158188 -0.166597 -0.174871 -0.18302 -0.191053 -0.19898 -0.206814 -0.214566 -0.222251 -0.229883 -0.237479 -0.245057 -0.252636 -0.260239 -0.267888 -0.275609 -0.28343 -0.291381 -0.299496 -0.307809 -0.316362 -0.325195 -0.334354 -0.343891 -0.353858 -0.364316 -0.375327 -0.386961 -0.399294 -0.412408 -0.426391 -0.441342 -0.457364 -0.474575 -0.493098 -0.513072 -0.534646 -0.557982 -0.583262 -0.610679 -0.640448 -0.672804 -0.708003 -0.746327 -0.788084 -0.833613 -0.883283 -0.9375 -0.996708 -1.06139 -1.13209 -1.20938 -1.2939 -1.38634 -1.48747 -1.59812 -1.71918 -1.85164 -1.99658 -2.15516 -2.32863 -2.51838 -2.72589 -2.95276 -3.20074 -3.47169 -3.76763 -4.09075 -4.44338 -4.82803 -5.24739 -5.70433 -6.20194 -6.74348 -7.33245 -7.97258 -8.66779 -9.42228 -10.2405 -11.127 -12.0868 -13.1251 -14.2473 -15.4592 -16.7666 -18.1759 -19.6935 -21.3263 -23.0812 -24.9656 -26.987 -29.1532 -31.4722 -33.9524 -36.602 -39.4299 -42.4448 -45.6558 -49.072 -52.7027 -56.5572 -60.6451 -64.9759 -69.559 -74.404 -79.5203 -84.9173 -90.6044 -96.5906 -102.885 -109.496 -116.432 -123.702 -131.313 -139.272 -147.586 -156.262 -165.306 -174.722 -184.515 -194.69 -205.248 -216.194 -227.527 -239.248 -251.358 -263.855 -276.735 -289.996 -303.634 -317.642 -332.013 -346.74 -361.814 -377.223 -392.955 -409 -425.341 -441.964 -458.852 -475.989 -493.354 -510.93 -528.694 -546.626 -564.703 -582.903 -601.2 -619.573 -637.994 -656.44 -674.885 -693.304 -711.672 -729.962 -748.15 -766.211 -784.12 -801.855 -819.392 -836.708 -853.782 -870.594 -887.124 -903.354 -919.267 -934.846 -950.077 -964.946 -979.442 -993.553 -1007.27 -1020.59 -1033.49 -1045.98 -1058.06 -1069.71 -1080.94 -1091.74 -1102.12 -1112.08 -1121.62 -1130.75 -1139.46 -1147.77 -1155.67 -1163.19 -1170.31 -1177.06 -1183.44 -1189.45 -1195.11 -1200.43 -1205.42 -1210.08 -1214.42 -1218.47 -1222.21 -1225.68 -1228.87 -1231.8 -1234.48 -1236.91 -1239.11 -1241.09 -1242.85 -1244.41 -1245.78 -1246.96 -1247.96 -1248.8 -1249.47 -1249.99 -1250.37 -1250.61 -1250.72 -1250.73 -1250.7 -1250.53 -1250.23 -1249.8 -1249.21 -1248.46 -1247.55 -1246.46 -1245.2 -1243.73 -1242.07 -1240.2 -1238.11 -1235.78 -1233.22 -1230.41 -1227.33 -1223.99 -1220.36 -1216.44 -1212.22 -1207.69 -1202.84 -1197.65 -1192.13 -1186.25 -1180.01 -1173.4 -1166.42 -1159.05 -1151.28 -1143.12 -1134.54 -1125.56 -1116.16 -1106.34 -1096.1 -1085.43 -1074.33 -1062.81 -1050.86 -1038.5 -1025.71 -1012.51 -998.905 -984.901 -970.506 -955.733 -940.591 -925.096 -909.26 -893.099 -876.631 -859.874 -842.847 -825.57 -808.065 -790.353 -772.459 -754.404 -736.215 -717.915 -699.53 -681.085 -662.606 -644.119 -625.648 -607.219 -588.858 -570.589 -552.435 -534.42 -516.567 -498.898 -481.433 -464.193 -447.196 -430.461 -414.004 -397.841 -381.987 -366.454 -351.256 -336.401 -321.902 -307.764 -293.997 -280.606 -267.596 -254.97 -242.732 -230.882 -219.423 -208.353 -197.671 -187.375 -177.462 -167.929 -158.771 -149.983 -141.559 -133.493 -125.779 -118.408 -111.374 -104.668 -98.2816 -92.2066 -86.4338 -80.9542 -75.7584 -70.8371 -66.1807 -61.7797 -57.6245 -53.7057 -50.0136 -46.539 -43.2723 -40.2044 -37.3262 -34.6289 -32.1036 -29.7418 -27.5352 -25.4757 -23.5554 -21.7667 -20.1022 -18.5547 -17.1175 -15.7838 -14.5475 -13.4024 -12.3427 -11.363 -10.4579 -9.62252 -8.85203 -8.14196 -7.48808 -6.88636 -6.33304 -5.82455 -5.35756 -4.92895 -4.53577 -4.17529 -3.84496 -3.54238 -3.26535 -3.01179 -2.77981 -2.56762 -2.37359 -2.19619 -2.03404 -1.88583 -1.75038 -1.62659 -1.51346 -1.41007 -1.31556 -1.22916 -1.15016 -1.0779 -1.0118 -0.951295 -0.895902 -0.845163 -0.798661 -0.756019 -0.71689 -0.68096 -0.647939 -0.617566 -0.5896 -0.563823 -0.540034 -0.518051 -0.497705 -0.478846 -0.461331 -0.445033 -0.429835 -0.415629 -0.402314 -0.389801 -0.378006 -0.366852 -0.356267 -0.346187 -0.336552 -0.327306 -0.318399 -0.309782 -0.301414 -0.293254 -0.285266 -0.277416 -0.269672 -0.262007 -0.254394 -0.24681 -0.239232 -0.23164 -0.224016 -0.216343 -0.208607 -0.200791 -0.192885 -0.184876 -0.176754 -0.168508 -0.160129 -0.15161 -0.142942 -0.134119 -0.125133 -0.115979 -0.10665 -0.0971411 -0.0874465 -0.0775613 -0.0674804 -0.0571989 -0.0467119 -0.0360148 -0.0251029 -0.0139715 -0.00261601 -0
-1.6e-11 -1.6e-11 -1.6e-11 -1.6e-11 -1.6e-11 -1.6e-11 -1.6e-11 -1.6e-11 -1.6e-11 -1.6e-11 -1.6e-11 -1.6e-11 -1.6e-11 -1.6e-11 -1.6e-11 -1.6e-11 -1.6e-11 -1.6e-11 -1.6e-11 -1.6e-11 -1.6e-11 -1.6e-11 -1.6e-11 -1.6e-11 -1.6e-11 -1.6e-11 -1.6e-11 -1.6e-11 -1.6e-11 -1.6e-11 -1.6e-11 -1.6e-11 -1.6e-11 -1.6e-11 -1.6e-11 -1.6e-11 -1.6e-11 -1.6e-11 -1.6e-11 -1.6e-11 -1.6e-11 -1.6e-11 -1.6e-11 -1.6e-11 -1.6e-11 -1.6e-11 -1.6e-11 -1.6e-11 -1.6e-11 -1.6e-11 -1.6e-11 -1.6e-11 -1.6e-11 -1.6e-11 -1.6e-11 -1.6e-11 -1.6e-11 -1.6e-11 -1.6e-11 -1.6e-11 -1.6e-11 -1.6e-11 -1.6e-11 -1.6e-11 -1.6e-11 -1.6e-11 -1.6e-11 -1.6e-11 -1.6e-11 -1.6e-11 -1.6e-11 -1.6e-11 -1.6e-11 -1.6e-11 -1.6e-11 -1.6e-11 -1.6e-11 -1.6e-11 -1.6e-11 -1.6e-11 -1.59999e-11 -1.59999e-11 -1.59999e-11 -1.59999e-11 -1.59999e-11 -1.59999e-11 -1.59999e-11 -1.59998e-11 -1.59998e-11 -1.59998e-11 -1.59997e-11 -1.59997e-11 -1.59996e-11 -1.59995e-11 -1.59995e-11 -1.59994e-11 -1.59992e-11 -1.59991e-11 -1.59989e-11 -1.59988e-11 -1.59985e-11 -1.59983e-11 -1.5998e-11 -1.59977e-11 -1.59973e-11 -1.59968e-11 -1.59963e-11 -1.59956e-11 -1.59949e-11 -1.59941e-11 -1.59931e-11 -1.5992e-11 -1.59907e-11 -1.59893e-11 -1.59876e-11 -1.59857e-11 -1.59836e-11 -1.59811e-11 -1.59783e-11 -1.59752e-11 -1.59716e-11 -1.59676e-11 -1.5963e-11 -1.59579e-11 -1.59522e-11 -1.59457e-11 -1.59385e-11 -1.59305e-11 -1.59215e-11 -1.59116e-11 -1.59005e-11 -1.58883e-11 -1.58748e-11 -1.58598e-11 -1.58434e-11 -1.58253e-11 -1.58054e-11 -1.57837e-11 -1.57599e-11 -1.5734e-11 -1.57057e-11 -1.5675e-11 -1.56418e-11 -1.56057e-11 -1.55668e-11 -1.55247e-11 -1.54795e-11 -1.54309e-11 -1.53788e-11 -1.5323e-11 -1.52634e-11 -1.51998e-11 -1.51322e-11 -1.50603e-11 -1.49842e-11 -1.49036e-11 -1.48184e-11 -1.47287e-11 -1.46343e-11 -1.45351e-11 -1.44312e-11 -1.43225e-11 -1.4209e-11 -1.40907e-11 -1.39676e-11 -1.38399e-11 -1.37074e-11 -1.35705e-11 -1.34291e-11 -1.32833e-11 -1.31334e-11 -1.29795e-11 -1.28216e-11 -1.26602e-11 -1.24952e-11 -1.23271e-11 -1.21559e-11 -1.1982e-11 -1.18055e-11 -1.16268e-11 -1.14461e-11 -1.12636e-11 -1.10798e-11 -1.08947e-11 -1.07087e-11 -1.05221e-11 -1.03351e-11 -1.01479e-11 -9.96098e-12 -9.77441e-12 -9.58848e-12 -9.40342e-12 -9.21945e-12 -9.03678e-12 -8.85562e-12 -8.67616e-12 -8.49857e-12 -8.32302e-12 -8.14965e-12 -7.97862e-12 -7.81004e-12 -7.64404e-12 -7.48071e-12 -7.32014e-12 -7.16243e-12 -7.00762e-12 -6.85579e-12 -6.70698e-12 -6.56122e-12 -6.41855e-12 -6.27898e-12 -6.14252e-12 -6.00919e-12 -5.87897e-12 -5.75185e-12 -5.62782e-12 -5.50685e-12 -5.38892e-12 -5.274e-12 -5.16204e-12 -5.05302e-12 -4.94689e-12 -4.84359e-12 -4.74309e-12 -4.64533e-12 -4.55026e-12 -4.45782e-12 -4.36797e-12 -4.28064e-12 -4.19577e-12 -4.11332e-12 -4.03322e-12 -4.01532e-12 -3.9365e-12 -3.85697e-12 -3.77674e-12 -3.69587e-12 -3.61438e-12 -3.53233e-12 -3.44976e-12 -3.36671e-12 -3.28326e-12 -3.19944e-12 -3.11532e-12 -3.03096e-12 -2.94642e-12 -2.86178e-12 -2.77711e-12 -2.69247e-12 -2.60795e-12 -2.52363e-12 -2.43958e-12 -2.35589e-12 -2.27265e-12 -2.18995e-12 -2.10787e-12 -2.0265e-12 -1.94594e-12 -1.86628e-12 -1.78761e-12 -1.71002e-12 -1.63361e-12 -1.55845e-12 -1.48465e-12 -1.41228e-12 -1.34144e-12 -1.27219e-12 -1.20462e-12 -1.13879e-12 -1.07479e-12 -1.01266e-12 -9.52466e-13 -8.9426e-13 -8.38084e-13 -7.83977e-13 -7.3197e-13 -6.82087e-13 -6.34343e-13 -5.88747e-13 -5.45302e-13 -5.04e-13 -4.64827e-13 -4.27764e-13 -3.92781e-13 -3.59843e-13 -3.2891e-13 -2.99934e-13 -2.72861e-13 -2.47635e-13 -2.24191e-13 -2.02463e-13 -1.82382e-13 -1.63874e-13 -1.46865e-13 -1.31278e-13 -1.17035e-13 -1.04059e-13 -9.22713e-14 -8.1596e-14 -7.19569e-14 -6.32798e-14 -5.54928e-14 -4.85261e-14 -4.23126e-14 -3.67883e-14 -3.18923e-14 -2.75669e-14 -2.37577e-14 -2.04139e-14 -1.74883e-14 -1.49367e-14 -1.27186e-14 -1.07968e-14 -9.13722e-15 -7.70877e-15 -6.48338e-15 -5.4357e-15 -4.54295e-15 -3.7848e-15 -3.14313e-15 -2.60189e-15 -2.14692e-15 -1.76578e-15 -1.44759e-15 -1.18286e-15 -9.63379e-16 -7.82043e-16 -6.32745e-16 -5.10254e-16 -4.10109e-16 -3.28521e-16 -2.62285e-16 -2.08704e-16 -1.65512e-16 -1.30819e-16 -1.03051e-16 -8.09044e-17 -6.33044e-17 -4.93672e-17 -3.83698e-17 -2.97227e-17 -2.29478e-17 -1.76586e-17 -1.35437e-17 -1.03537e-17 -7.88933e-18 -5.99216e-18 -4.5367e-18 -3.42392e-18 -2.57604e-18 -1.93218e-18 -1.44486e-18 -1.07725e-18 -8.00833e-19 -5.93652e-19 -4.38851e-19 -3.23543e-19 -2.3791e-19 -1.74502e-19 -1.27684e-19 -9.32116e-20 -6.78966e-20 -4.93542e-20 -3.5806e-20 -2.59301e-20 -1.87471e-20 -1.35337e-20 -9.75707e-21 -7.02627e-21 -5.05491e-21 -3.63389e-21 -2.6109e-21 -1.87528e-21 -1.34679e-21 -9.67373e-22 -6.95121e-22 -4.99819e-22 -3.59725e-22 -2.59212e-22 -1.87066e-22 -1.35245e-22 -9.79863e-23 -7.11653e-23 -5.18285e-23 -3.78625e-23 -2.77545e-23 -2.04214e-23 -1.50873e-23 -1.11959e-23 -8.34763e-24 -6.25562e-24 -4.71321e-24 -3.57138e-24 -2.72241e-24 -2.08831e-24 -1.61239e-24 -1.2534e-24 -9.81171e-25 -7.7362e-25 -6.14487e-25 -4.91773e-25 -3.96585e-25 -3.22305e-25 -2.63988e-25 -2.17924e-25 -1.81312e-25 -1.52033e-25 -1.28474e-25 -1.09401e-25 -9.38655e-26 -8.1135e-26 -7.06409e-26 -6.19396e-26 -5.46831e-26 -4.85971e-26 -4.34644e-26 -3.91119e-26 -3.54011e-26 -3.22206e-26 -2.94803e-26 -2.71069e-26 -2.50407e-26 -2.32325e-26 -2.1642e-26 -2.02355e-26 -1.89853e-26 -1.78679e-26 -1.68637e-26 -1.59563e-26 -1.51317e-26 -1.43779e-26 -1.36849e-26 -1.3044e-26 -1.24479e-26 -1.18902e-26 -1.13654e-26 -1.08689e-26 -1.03967e-26 -9.94537e-27 -9.5119e-27 -9.09382e-27 -8.68901e-27 -8.29568e-27 -7.91234e-27 -7.53776e-27 -7.17094e-27 -6.8111e-27 -6.45763e-27 -6.11008e-27 -5.76815e-27 -5.43169e-27 -5.10064e-27 -4.77506e-27 -4.45511e-27 -4.14102e-27 -3.83312e-27 -3.5318e-27 -3.23752e-27 -2.95079e-27 -2.67221e-27 -2.40239e-27 -2.14205e-27 -1.89192e-27 -1.65279e-27 -1.6e-27
-1.6e-27 -1.83648e-27 -2.08416e-27 -2.34222e-27 -2.6099e-27 -2.88652e-27 -3.17141e-27 -3.46399e-27 -3.76371e-27 -4.07011e-27 -4.38278e-27 -4.70137e-27 -5.02564e-27 -5.3554e-27 -5.69057e-27 -6.03119e-27 -6.37737e-27 -6.7294e-27 -7.08767e-27 -7.45275e-27 -7.82539e-27 -8.20654e-27 -8.59736e-27 -8.99929e-27 -9.41403e-27 -9.84364e-27 -1.02905e-26 -1.07575e-26 -1.12479e-26 -1.17655e-26 -1.2315e-26 -1.29015e-26 -1.35311e-26 -1.4211e-26 -1.49496e-26 -1.57564e-26 -1.66431e-26 -1.76229e-26 -1.87118e-26 -1.99286e-26 -2.12956e-26 -2.28396e-26 -2.45927e-26 -2.65935e-26 -2.88888e-26 -3.15357e-26 -3.46038e-26 -3.8179e-26 -4.23669e-26 -4.7299e-26 -5.31392e-26 -6.00931e-26 -6.842e-26 -7.84482e-26 -9.05958e-26 -1.05398e-25 -1.23544e-25 -1.45923e-25 -1.73694e-25 -2.08367e-25 -2.51924e-25 -3.06982e-25 -3.77003e-25 -4.66596e-25 -5.81924e-25 -7.31257e-25 -9.25743e-25 -1.18047e-24 -1.51592e-24 -1.96002e-24 -2.55098e-24 -3.34118e-24 -4.40272e-24 -5.83503e-24 -7.77563e-24 -1.0415e-23 -1.40178e-23 -1.89517e-23 -2.57292e-23 -3.50643e-23 -4.79536e-23 -6.57886e-23 -9.05129e-23 -1.24842e-22 -1.72569e-22 -2.38991e-22 -3.31501e-22 -4.60411e-22 -6.40089e-22 -8.90531e-22 -1.23953e-21 -1.72564e-21 -2.40229e-21 -3.34335e-21 -4.65073e-21 -6.46475e-21 -8.97814e-21 -1.24549e-20 -1.72559e-20 -2.38728e-20 -3.29736e-20 -4.54633e-20 -6.25642e-20 -8.59217e-20 -1.17744e-19 -1.60984e-19 -2.19576e-19 -2.98749e-19 -4.05418e-19 -5.48704e-19 -7.4059e-19 -9.96757e-19 -1.33765e-18 -1.78984e-18 -2.38769e-18 -3.1755e-18 -4.21013e-18 -5.56431e-18 -7.33068e-18 -9.62676e-18 -1.2601e-17 -1.64404e-17 -2.1379e-17 -2.77093e-17 -3.57949e-17 -4.60858e-17 -5.91371e-17 -7.56305e-17 -9.63998e-17 -1.22461e-16 -1.55045e-16 -1.95642e-16 -2.46041e-16 -3.0839e-16 -3.85247e-16 -4.79656e-16 -5.95218e-16 -7.36176e-16 -9.0751e-16 -1.11504e-15 -1.36554e-15 -1.66686e-15 -2.02806e-15 -2.45954e-15 -2.97323e-15 -3.58269e-15 -4.30333e-15 -5.15254e-15 -6.14988e-15 -7.31726e-15 -8.67911e-15 -1.02625e-14 -1.20975e-14 -1.42169e-14 -1.66568e-14 -1.94566e-14 -2.26588e-14 -2.63096e-14 -3.04582e-14 -3.51577e-14 -4.04642e-14 -4.64372e-14 -5.31393e-14 -6.06363e-14 -6.89963e-14 -7.82903e-14 -8.85912e-14 -9.99735e-14 -1.12513e-13 -1.26287e-13 -1.41373e-13 -1.57847e-13 -1.75785e-13 -1.95263e-13 -2.16353e-13 -2.39126e-13 -2.63648e-13 -2.89984e-13 -3.18191e-13 -3.48325e-13 -3.80434e-13 -4.14561e-13 -4.50742e-13 -4.89008e-13 -5.29382e-13 -5.7188e-13 -6.1651e-13 -6.63273e-13 -7.12163e-13 -7.63167e-13 -8.16264e-13 -8.71424e-13 -9.28613e-13 -9.87789e-13 -1.0489e-12 -1.1119e-12 -1.17672e-12 -1.24331e-12 -1.31158e-12 -1.38146e-12 -1.45288e-12 -1.52576e-12 -1.6e-12 -1.67553e-12 -1.75226e-12 -1.83009e-12 -1.90894e-12 -1.98871e-12 -2.06932e-12 -2.15067e-12 -2.23267e-12 -2.31523e-12 -2.39827e-12 -2.4817e-12 -2.56544e-12 -2.6494e-12 -2.73351e-12 -2.81768e-12 -2.90185e-12 -2.98594e-12 -3.06988e-12 -3.15361e-12 -3.23706e-12 -3.32018e-12 -3.40291e-12 -3.48519e-12 -3.56698e-12 -3.64822e-12 -3.72888e-12 -3.8089e-12 -3.88826e-12 -3.96691e-12 -3.98471e-12 -4.064e-12 -4.14564e-12 -4.22967e-12 -4.31616e-12 -4.40516e-12 -4.49674e-12 -4.59094e-12 -4.68783e-12 -4.78745e-12 -4.88986e-12 -4.99511e-12 -5.10324e-12 -5.2143e-12 -5.32834e-12 -5.44538e-12 -5.56547e-12 -5.68863e-12 -5.81488e-12 -5.94426e-12 -6.07676e-12 -6.2124e-12 -6.35117e-12 -6.49307e-12 -6.63808e-12 -6.78618e-12 -6.93733e-12 -7.09148e-12 -7.2486e-12 -7.4086e-12 -7.57141e-12 -7.73696e-12 -7.90512e-12 -8.07581e-12 -8.24888e-12 -8.42421e-12 -8.60165e-12 -8.78103e-12 -8.96218e-12 -9.14492e-12 -9.32903e-12 -9.51433e-12 -9.70058e-12 -9.88755e-12 -1.0075e-11 -1.02627e-11 -1.04504e-11 -1.06377e-11 -1.08246e-11 -1.10106e-11 -1.11955e-11 -1.1379e-11 -1.15609e-11 -1.17409e-11 -1.19186e-11 -1.2094e-11 -1.22666e-11 -1.24363e-11 -1.26028e-11 -1.27659e-11 -1.29254e-11 -1.3081e-11 -1.32327e-11 -1.33802e-11 -1.35234e-11 -1.36622e-11 -1.37964e-11 -1.3926e-11 -1.40508e-11 -1.41709e-11 -1.42862e-11 -1.43967e-11 -1.45024e-11 -1.46032e-11 -1.46993e-11 -1.47907e-11 -1.48774e-11 -1.49595e-11 -1.50372e-11 -1.51105e-11 -1.51795e-11 -1.52444e-11 -1.53053e-11 -1.53623e-11 -1.54156e-11 -1.54653e-11 -1.55116e-11 -1.55546e-11 -1.55945e-11 -1.56315e-11 -1.56656e-11 -1.56971e-11 -1.5726e-11 -1.57527e-11 -1.57771e-11 -1.57994e-11 -1.58198e-11 -1.58384e-11 -1.58553e-11 -1.58707e-11 -1.58846e-11 -1.58972e-11 -1.59086e-11 -1.59189e-11 -1.59281e-11 -1.59364e-11 -1.59438e-11 -1.59505e-11 -1.59564e-11 -1.59617e-11 -1.59664e-11 -1.59706e-11 -1.59743e-11 -1.59775e-11 -1.59804e-11 -1.5983e-11 -1.59852e-11 -1.59872e-11 -1.59889e-11 -1.59904e-11 -1.59917e-11 -1.59928e-11 -1.59938e-11 -1.59947e-11 -1.59954e-11 -1.59961e-11 -1.59967e-11 -1.59971e-11 -1.59976e-11 -1.59979e-11 -1.59982e-11 -1.59985e-11 -1.59987e-11 -1.59989e-11 -1.59991e-11 -1.59992e-11 -1.59993e-11 -1.59994e-11 -1.59995e-11 -1.59996e-11 -1.59997e-11 -1.59997e-11 -1.59998e-11 -1.59998e-11 -1.59998e-11 -1.59998e-11 -1.59999e-11 -1.59999e-11 -1.59999e-11 -1.59999e-11 -1.59999e-11 -1.59999e-11 -1.6e-11 -1.6e-11 -1.6e-11 -1.6e-11 -1.6e-11 -1.6e-11 -1.6e-11 -1.6e-11 -1.6e-11 -1.6e-11 -1.6e-11 -1.6e-11 -1.6e-11 -1.6e-11 -1.6e-11 -1.6e-11 -1.6e-11 -1.6e-11 -1.6e-11 -1.6e-11 -1.6e-11 -1.6e-11 -1.6e-11 -1.6e-11 -1.6e-11 -1.6e-11 -1.6e-11 -1.6e-11 -1.6e-11 -1.6e-11 -1.6e-11 -1.6e-11 -1.6e-11 -1.6e-11 -1.6e-11 -1.6e-11 -1.6e-11 -1.6e-11 -1.6e-11 -1.6e-11 -1.6e-11 -1.6e-11 -1.6e-11 -1.6e-11 -1.6e-11 -1.6e-11 -1.6e-11 -1.6e-11 -1.6e-11 -1.6e-11 -1.6e-11 -1.6e-11 -1.6e-11 -1.6e-11 -1.6e-11 -1.6e-11 -1.6e-11 -1.6e-11 -1.6e-11 -1.6e-11 -1.6e-11 -1.6e-11 -1.6e-11 -1.6e-11 -1.6e-11 -1.6e-11 -1.6e-11 -1.6e-11 -1.6e-11 -1.6e-11 -1.6e-11 -1.6e-11 -1.6e-11 -1.6e-11 -1.6e-11 -1.6e-11 -1.6e-11 -1.6e-11 -1.6e-11 -1.6e-11 -1.6e-11