TITLE = "diode3d"
VARIABLES = "x", "y", "z", "Acceptors", "AtContactNode", "ContactSurfaceArea", "Donors", "ElectronGeneration", "ElectronGeneration:Electrons", "ElectronGeneration:Holes", "Electrons", "Electrons_prev", "HoleGeneration", "HoleGeneration:Electrons", "HoleGeneration:Holes", "Holes", "Holes_prev", "IntrinsicCharge", "IntrinsicCharge:Potential", "IntrinsicElectrons", "IntrinsicElectrons:Potential", "IntrinsicHoles", "IntrinsicHoles:Potential", "NCharge", "NCharge:Electrons", "NSurfaceNormal_x", "NSurfaceNormal_y", "NSurfaceNormal_z", "NetDoping", "NodeVolume", "PCharge", "PCharge:Holes", "Potential", "PotentialIntrinsicCharge", "PotentialIntrinsicCharge:Potential", "PotentialNodeCharge", "PotentialNodeCharge:Electrons", "PotentialNodeCharge:Holes", "Potential_prev", "SurfaceArea", "USRH", "USRH:Electrons", "USRH:Holes", "botnodeelectrons", "botnodeelectrons:Electrons", "botnodeholes", "botnodeholes:Holes", "botnodemodel", "botnodemodel:Potential", "contactcharge_node", "coordinate_index", "node_index", "topnodeelectrons", "topnodeelectrons:Electrons", "topnodeholes", "topnodeholes:Holes", "topnodemodel", "topnodemodel:Potential", "Bern01", "Bern01:Potential@n0", "Bern01:Potential@n1", "EdgeCouple", "EdgeInverseLength", "EdgeLength", "ElectricField", "ElectricField:Potential@n0", "ElectricField:Potential@n1", "ElectronCurrent", "ElectronCurrent:Electrons@n0", "ElectronCurrent:Electrons@n1", "ElectronCurrent:Holes@n0", "ElectronCurrent:Holes@n1", "ElectronCurrent:Potential@n0", "ElectronCurrent:Potential@n1", "Electrons@n0", "Electrons@n1", "HoleCurrent", "HoleCurrent:Electrons@n0", "HoleCurrent:Electrons@n1", "HoleCurrent:Holes@n0", "HoleCurrent:Holes@n1", "HoleCurrent:Potential@n0", "HoleCurrent:Potential@n1", "Holes@n0", "Holes@n1", "Potential@n0", "Potential@n1", "PotentialEdgeFlux", "PotentialEdgeFlux:Potential@n0", "PotentialEdgeFlux:Potential@n1", "contactcharge_edge", "contactcharge_edge:Potential@n0", "contactcharge_edge:Potential@n1", "edge_index", "unitx", "unity", "unitz", "vdiff", "vdiff:Potential@n0", "vdiff:Potential@n1", "ElectricField_x", "ElectricField_y", "ElectricField_z", "ElectronCurrent_x", "ElectronCurrent_y", "ElectronCurrent_z", "ElementEdgeCouple", "ElementNodeVolume", "HoleCurrent_x", "HoleCurrent_y", "HoleCurrent_z"
ZONE T="Bulk" NODES=1417, ELEMENTS=6701, DATAPACKING=BLOCK, ZONETYPE=FETETRAHEDRON, VARLOCATION=([101,102,103,104,105,106,107,108,109,110,111]=CELLCENTERED)
0 1e-05 1e-05 0 0 1e-05 1e-05 0 1e-05 1e-05 1e-05 1e-05 1e-05 1e-05 1e-05 1e-05 1e-05 1e-05 1e-05 1e-05 1e-05 1e-05 1e-05 1e-05 1e-05 1e-05 1e-05 1e-05 1e-05 1e-05 1e-05 1e-05 1e-05 1e-05 1e-05 1e-05 1e-05 1e-05 1e-05 1e-05 1e-05 1e-05 1.11111e-06 2.22222e-06 3.33333e-06 4.44444e-06 5.55556e-06 6.66667e-06 7.77778e-06 8.88889e-06 0 0 0 0 0 0 0 0 0 9e-06 8e-06 7e-06 6e-06 5e-06 4e-06 3e-06 2e-06 1e-06 0 0 0 0 0 0 0 0 0 0 0 0 0 0 0 0 0 0 0 0 0 0 0 0 0 0 0 1.11111e-06 2.22222e-06 3.33333e-06 4.44444e-06 5.55556e-06 6.66667e-06 7.77778e-06 8.88889e-06 1.11111e-06 2.22222e-06 3.33333e-06 4.44444e-06 5.55556e-06 6.66667e-06 7.77778e-06 8.88889e-06 1e-05 1e-05 1e-05 1e-05 1e-05 1e-05 1e-05 1e-05 1e-05 1e-05 1e-05 1e-05 1e-05 1e-05 1e-05 1e-05 1e-05 1e-05 1e-05 1e-05 1e-05 1e-05 1e-05 1e-05 1e-05 1e-05 1e-05 1e-05 1e-05 1e-05 1e-05 1e-05 1e-05 1e-05 1e-05 1e-05 1e-05 1e-05 1e-05 1e-05 1e-05 1e-05 1e-05 1e-05 1e-05 1e-05 1e-05 1e-05 1e-05 1e-05 1e-05 1e-05 1e-05 1e-05 1e-05 1e-05 1e-05 1e-05 1e-05 1e-05 1e-05 1e-05 1e-05 1e-05 1e-05 1e-05 1e-05 1e-05 1e-05 1e-05 1e-05 1e-05 1e-05 1e-05 1e-05 1e-05 1e-05 1e-05 1e-05 1e-05 1e-05 1e-05 1e-05 1e-05 1e-05 1e-05 1e-05 1e-05 1e-05 1e-05 1e-05 1e-05 5.58279e-06 3.4767e-06 3.49712e-06 1.09959e-06 1.08887e-06 7.16798e-06 9.12095e-06 3.14053e-06 5.60755e-06 7.87585e-06 4.3551e-06 4.39775e-06 6.62896e-06 6.6962e-06 6.20743e-06 2.6301e-06 2.6301e-06 5.09732e-06 4.9544e-06 6.31388e-06 8.88978e-06 1.67978e-06 1.67978e-06 2.46395e-06 2.45805e-06 7.3544e-06 3.65389e-06 3.6581e-06 7.25071e-06 1.94436e-06 1.60871e-06 1.41956e-06 4.40238e-06 6.73224e-06 3.40799e-06 3.38921e-06 5.5996e-06 7.1697e-06 3.81296e-06 5.56302e-06 3.79836e-06 7.26505e-06 7.77044e-06 2.62654e-06 8.96453e-06 2.65554e-06 6.15665e-06 8.36638e-06 7.91269e-06 4.95473e-06 8.19344e-06 9.26091e-06 6.0909e-06 4.99202e-06 5.22313e-06 5.15576e-06 8.63823e-06 5.77537e-06 4.58569e-06 1.70523e-06 1.73487e-06 4.54891e-06 6.18416e-06 7.72841e-07 7.72603e-07 8.98681e-06 6.8361e-06 8.23363e-06 7.9454e-06 7.1078e-06 8.16592e-06 8.97821e-07 5.95101e-07 7.67797e-07 9.00958e-06 2.77656e-06 2.75505e-06 8.29277e-07 7.12379e-07 7.32747e-07 9.10564e-06 9.39548e-06 8.99226e-06 5.26499e-06 4.33716e-06 4.01614e-06 7.64081e-06 7.68105e-06 9.00925e-07 9.01162e-07 8.3341e-06 8.39297e-06 2.87423e-06 2.51144e-06 2.3221e-06 7.62073e-06 8.4407e-06 6.53982e-06 6.52868e-06 5.72945e-06 5.83917e-06 4.3284e-06 4.29333e-06 6.25071e-06 6.20042e-06 2.71505e-06 2.71398e-06 9.1046e-06 8.39984e-07 8.40094e-07 3.0054e-06 2.89719e-06 7.46e-06 7.42467e-06 1.59421e-06 1.59386e-06 8.55275e-06 8.36217e-06 9.43304e-07 8.90804e-06 3.4707e-06 3.59395e-06 5.45741e-06 5.48623e-06 1.3866e-06 1.38686e-06 6.50925e-06 7.47369e-06 5.95604e-06 7.5775e-06 4.65791e-06 8.14028e-06 4.69739e-06 2.50979e-06 2.39605e-06 7.05257e-06 3.55327e-06 5.9464e-06 8.12623e-06 7.05592e-06 5.18162e-06 4.96987e-06 6.73356e-06 5.03388e-06 8.25763e-06 4.97207e-06 7.14899e-06 6.15009e-06 1.48886e-06 1.48926e-06 1.77134e-06 1.77175e-06 2.06015e-06 2.05939e-06 3.73529e-06 3.76164e-06 9.09815e-06 7.20738e-06 6.31416e-06 9.24913e-06 9.20514e-06 9.33815e-06 9.20631e-06 6.7211e-06 8.05764e-06 1.92018e-06 6.86938e-07 6.87089e-07 4.0932e-06 6.34052e-07 6.33977e-07 9.01619e-06 9.27439e-06 3.25062e-06 3.29937e-06 7.2118e-07 7.21296e-07 5.15883e-06 4.24011e-06 3.2991e-06 7.05163e-06 7.50585e-06 9.66938e-07 9.11639e-06 9.25291e-06 7.54563e-06 2.47019e-06 8.06497e-06 5.08526e-06 6.47362e-06 4.37069e-06 5.25602e-06 3.88661e-06 6.07164e-06 6.1083e-06 2.66163e-06 2.68114e-06 8.60946e-06 7.39674e-07 3.13582e-06 7.90909e-06 7.34858e-06 1.52633e-06 1.5724e-06 4.61495e-06 7.88952e-06 8.42992e-06 2.02943e-06 6.50775e-06 8.99011e-06 8.17155e-06 4.05456e-06 5.0347e-06 6.40675e-06 3.6966e-06 8.1918e-06 9.04673e-07 1.51565e-06 8.82936e-06 1.46421e-06 5.37643e-06 3.25869e-06 7.61787e-06 5.87012e-06 7.02194e-06 6.7051e-06 4.69712e-06 4.49329e-06 5.65224e-06 2.60927e-06 2.31197e-06 8.91556e-06 9.25855e-06 8.40147e-06 4.27069e-06 7.48321e-07 5.10018e-06 2.75989e-06 5.93328e-06 5.98148e-06 1.53195e-06 3.41786e-06 5.52354e-06 7.11645e-06 1.54256e-06 8.67161e-06 9.26868e-06 5.04747e-06 2.2783e-06 8.19945e-06 7.02507e-06 1.25055e-06 6.5796e-06 6.29533e-07 9.28704e-06 4.01976e-06 3.64106e-06 7.38196e-07 8.52774e-06 3.17783e-06 7.2937e-06 9.3849e-06 7.52813e-06 2.17747e-06 7.11586e-07 6.21712e-07 5.89907e-07 1.9735e-06 5.82212e-07 9.37016e-06 6.05045e-06 3.42989e-06 8.48498e-06 2.53473e-06 9.88608e-07 7.88618e-06 7.7052e-06 2.49864e-06 8.87457e-06 5.49771e-06 3.64438e-06 7.29586e-06 5.53854e-06 1.33255e-06 7.99196e-06 4.2508e-06 3.00211e-06 4.8811e-06 6.80725e-06 4.92774e-06 2.64101e-06 7.49406e-06 9.09297e-06 9.16009e-06 3.79734e-06 1.90521e-06 8.94043e-06 7.24855e-07 1.1171e-06 1.60845e-06 8.9377e-06 8.10145e-06 2.6654e-06 9.30075e-06 8.32435e-06 5.36249e-06 4.18174e-06 5.74428e-06 3.99433e-06 4.60414e-06 2.12586e-06 2.82223e-06 4.86516e-06 6.04701e-06 1.68344e-06 1.14838e-06 4.54643e-06 7.09584e-06 3.99042e-06 3.53385e-06 2.79245e-06 5.15212e-06 8.84811e-06 7.81319e-06 3.67943e-06 5.85314e-06 9.73947e-07 3.02207e-06 6.61278e-06 6.81559e-06 6.44401e-06 5.23501e-06 9.23495e-06 2.05072e-06 7.42307e-06 4.33728e-06 8.37528e-06 7.21565e-06 8.10981e-06 1.8696e-06 4.24237e-06 8.57806e-07 3.39207e-06 6.54182e-06 3.15125e-06 3.21626e-06 7.98438e-06 7.14457e-06 2.05012e-06 6.92556e-06 5.49565e-06 2.1322e-06 6.20293e-06 9.21756e-06 6.06654e-06 3.5995e-06 2.58212e-06 7.21849e-06 1.7018e-06 6.42559e-06 9.04443e-07 8.97065e-06 6.18028e-07 0 0 0 0 0 0 0 0 0 0 0 0 0 0 0 0 0 0 0 0 0 0 0 0 0 0 0 0 0 0 0 0 0 0 0 0 0 0 0 0 0 0 0 0 0 0 0 0 0 0 0 0 0 0 0 0 0 0 0 0 0 0 0 0 0 0 0 0 0 0 0 0 0 0 0 0 0 0 0 0 0 0 0 0 0 0 0 0 0 0 0 0 0 0 0 0 0 0 0 0 5.00747e-06 3.16351e-06 6.81216e-06 3.13041e-06 6.84076e-06 6.84246e-06 6.85942e-06 3.15059e-06 3.16954e-06 7.52534e-06 5.04588e-06 2.50135e-06 4.98921e-06 5.26695e-06 7.78462e-06 2.24213e-06 5.24766e-06 4.99163e-06 5.00164e-06 2.23344e-06 7.74928e-06 4.98628e-06 7.8198e-06 1.82228e-06 2.74917e-06 8.0176e-06 2.01255e-06 7.78988e-06 2.24164e-06 4.97755e-06 8.03827e-06 1.55772e-06 7.98633e-06 1.99203e-06 8.03574e-06 1.84735e-06 1.85764e-06 3.81888e-06 1.60577e-06 1.72492e-06 8.30161e-06 3.0884e-06 3.62143e-06 8.22407e-06 3.76372e-06 4.9231e-06 4.95508e-06 3.19945e-06 6.50936e-06 3.55515e-06 3.7433e-06 1.60057e-06 5.87103e-06 3.74658e-06 8.2817e-06 6.28851e-06 6.41435e-06 8.39887e-06 3.55916e-06 8.36097e-06 6.28911e-06 8.28163e-06 6.17467e-06 1.75894e-06 4.11016e-06 6.6593e-06 6.62664e-06 6.42924e-06 6.45897e-06 6.43787e-06 3.79862e-06 4.81316e-06 6.49517e-06 4.07623e-06 6.56222e-06 4.06272e-06 5.97011e-06 1.83458e-06 8.37492e-06 4.94406e-06 4.06437e-06 1.56979e-06 8.37617e-06 8.46715e-06 3.36252e-06 8.41466e-06 1.66858e-06 2.18557e-06 6.45141e-06 8.38136e-06 7.7746e-06 1.39756e-06 1.75892e-06 3.4836e-06 3.63665e-06 1.38342e-06 6.28523e-06 1.48925e-06 1.50833e-06 1.34813e-06 6.43228e-06 1.30854e-06 7.37429e-06 1.35656e-06 6.69875e-06 7.01691e-06 5.15887e-06 1.12587e-06 8.75294e-06 8.64434e-06 3.26314e-06 8.796e-06 7.24651e-06 6.55128e-06 5.0236e-06 2.78418e-06 8.55641e-06 8.64288e-06 4.29277e-06 7.08141e-06 4.40652e-06 2.53099e-06 5.01418e-06 1.32655e-06 8.69411e-06 1.32118e-06 1.30109e-06 2.55157e-06 2.7544e-06 5.48345e-06 1.20846e-06 4.62909e-06 5.7405e-06 2.16143e-06 2.60851e-06 2.77107e-06 8.73028e-06 5.36804e-06 6.96663e-06 2.20256e-06 8.69836e-06 1.32431e-06 7.21237e-06 7.68983e-06 2.83794e-06 1.85432e-06 4.48653e-06 8.69607e-06 1.1867e-06 3.19746e-06 8.74873e-06 1.08172e-06 7.46129e-06 8.86342e-06 4.1212e-06 2.95461e-06 8.79773e-06 1.05299e-06 7.50154e-06 8.64609e-06 2.78574e-06 5.49287e-06 1.26582e-06 7.52189e-06 8.81819e-06 7.88968e-06 9.79974e-07 5.43642e-06 1.17753e-06 8.70593e-06 1.23919e-06 1.25004e-06 2.78356e-06 1.30121e-06 5.76851e-06 4.01579e-06 5.73475e-06 4.64422e-06 7.45788e-06 2.74246e-06 4.07081e-06 1.12674e-06 4.70309e-06 7.20921e-06 7.43613e-06 8.80322e-06 6.28187e-06 5.61109e-06 5.71206e-06 1.01305e-06 7.80167e-06 2.58951e-06 8.82125e-06 3.28801e-06 4.78865e-06 1.17419e-06 8.88982e-06 5.72182e-06 2.31573e-06 1.15284e-06 5.81383e-06 1.2306e-06 2.57089e-06 7.62632e-06 6.10963e-06 4.05132e-06 8.72808e-06 3.97303e-06 3.03365e-06 5.11492e-06 7.44438e-06 1.02145e-06 7.72615e-06 1.23394e-06 5.72879e-06 7.31713e-06 3.77642e-06 8.93301e-06 7.07776e-06 6.78561e-06 1.00867e-06 2.59448e-06 7.54082e-06 5.96909e-06 2.53281e-06 5.14312e-06 4.85325e-06 8.81294e-06 8.83519e-06 1.21397e-06 3.99229e-06 1.05067e-06 5.36402e-06 5.56461e-06 5.3667e-06 2.6262e-06 4.97228e-06 7.37651e-06 7.37734e-06 9.87719e-07 4.00188e-06 6.86425e-06 8.39085e-06 5.09615e-06 1.12288e-06 4.26454e-06 5.83722e-06 8.82135e-06 2.65156e-06 2.93576e-06 4.22165e-06 8.93971e-06 2.25963e-06 2.57484e-06 3.83012e-06 8.82544e-06 3.45209e-06 2.08859e-06 4.29211e-06 7.52456e-06 3.09551e-06 4.89509e-06 2.48884e-06 2.78219e-06 7.00238e-06 3.1584e-06 7.95706e-06 6.27696e-06 6.04195e-06 8.97623e-06 3.92502e-06 1.15927e-06 3.53257e-06 7.6036e-06 8.83752e-06 8.90295e-06 5.20996e-06 4.17751e-06 1.17493e-06 8.96383e-06 4.27843e-06 2.51112e-06 2.33715e-06 5.59777e-06 6.70144e-06 4.24639e-06 2.32818e-06 3.09845e-06 5.3862e-06 1.11543e-06 4.21047e-06 9.28591e-07 1.3444e-06 7.20467e-06 4.02244e-06 1.14383e-06 2.87219e-06 6.42922e-06 8.92345e-06 8.84929e-06 6.99638e-06 7.64929e-06 7.44283e-06 6.04637e-06 8.94766e-06 2.46224e-06 5.17778e-06 2.91595e-06 7.30174e-06 5.50915e-06 3.17721e-06 7.7788e-06 6.05827e-06 7.03011e-06 5.6405e-06 4.95552e-06 5.63586e-06 8.97018e-06 1.18331e-06 3.85614e-06 6.86385e-06 3.20573e-06 7.52306e-06 6.01357e-06 6.77863e-07 7.16507e-06 7.84312e-06 4.12384e-06 6.1655e-06 7.64497e-06 2.3149e-06 5.21367e-06 9.00633e-06 9.01336e-06 3.06517e-06 5.10973e-06 7.65253e-06 2.50157e-06 9.39641e-07 2.061e-06 9.07353e-06 2.09629e-06 2.70365e-06 6.3143e-06 6.37627e-06 2.89635e-06 8.68988e-07 1.1091e-06 7.30092e-06 7.83785e-06 9.04494e-07 7.83407e-06 5.78319e-06 6.70721e-06 4.23749e-06 1.00973e-06 2.32408e-06 9.0053e-06 6.51764e-06 7.74631e-06 8.76657e-07 4.42638e-06 5.34187e-06 8.95935e-06 3.78783e-06 4.25795e-06 4.795e-06 9.04108e-06 2.08578e-06 9.23485e-07 3.30381e-06 1.03475e-06 9.02757e-06 4.43521e-06 3.33269e-06 8.6704e-07 3.46657e-06 7.81834e-06 6.71496e-06 8.10265e-06 3.7744e-06 8.88227e-06 3.4094e-06 9.08905e-07 3.96232e-06 5.89698e-06 7.99681e-06 6.1818e-06 7.8587e-06 8.48171e-07 3.18011e-06 1.10154e-06 1.79763e-06 4.85065e-06 2.30129e-06 6.88785e-06 2.31917e-06 4.32076e-06 9.07226e-06 1.99747e-06 1.70817e-06 4.65566e-06 8.71647e-06 3.73741e-06 7.44771e-06 7.03923e-06 2.46298e-06 9.16936e-06 5.96084e-06 2.14335e-06 9.56406e-07 6.7233e-06 9.76887e-07 9.0265e-06 6.7225e-06 6.8336e-06 7.88257e-06 3.19309e-06 1.76612e-06 7.88148e-06 8.24503e-06 4.68479e-06 4.10251e-06 9.00063e-06 6.98869e-06 8.86202e-07 9.05604e-06 2.54334e-06 9.11279e-07 3.1626e-06 3.9482e-06 7.92745e-06 4.0578e-06 9.10012e-06 6.12053e-06 1.92982e-06 8.81191e-07 6.27677e-06 4.22037e-06 2.87095e-06 2.49438e-06 4.21051e-06 3.56448e-06 5.00913e-06 6.54349e-06 6.62002e-06 1.37328e-06 8.78281e-06 2.21488e-06 6.54153e-06 4.73457e-06 7.72503e-06 8.02846e-07 9.00154e-06 3.04294e-06 2.04595e-06 7.73168e-06 9.17513e-06 6.32305e-06 3.75623e-06 8.01305e-06 4.80763e-06 6.52303e-06 4.07371e-06 3.43514e-06 8.17302e-07 2.52466e-06 1.88906e-06 3.45804e-06 2.1589e-06 8.0876e-06 9.22329e-06 8.11718e-07 2.9558e-06 7.13454e-06 1.97721e-06 8.87923e-06 4.26562e-06 7.07213e-06 6.15245e-06 5.78662e-06 9.07985e-06 2.06811e-06 1.94078e-06 6.33066e-06 9.28812e-06 9.08575e-07 9.08234e-06 7.75796e-06 7.01763e-06 3.27446e-06 3.55104e-06 6.04266e-06 6.27181e-06 6.66645e-06 5.98538e-06 5.51337e-06 9.19e-06 8.1568e-06 5.08442e-06 3.69963e-06 1.92697e-06 5.06994e-06 1.04501e-06 8.64195e-07 3.3506e-06 2.07918e-06 5.46332e-06 2.01009e-06 7.67708e-06 6.92815e-06 9.15113e-06 2.3025e-06 6.20459e-06 7.20194e-07 7.57055e-06 9.12209e-06 3.07774e-06 4.82465e-06 9.13629e-06 9.21941e-06 7.56964e-07 1.97573e-06 4.242e-06 6.04022e-06 4.25687e-06 9.20647e-06 7.7493e-07 4.2427e-06 1.96919e-06 7.07017e-06 9.20566e-06 5.86888e-06 5.23137e-06 8.24324e-06 7.80808e-06 2.36422e-06 6.77582e-06 9.15779e-06 7.87352e-06 5.38572e-06 5.86063e-06 3.3992e-06 6.09301e-06 2.32419e-06 4.64325e-06 8.49206e-06 3.11037e-06 3.87376e-06 3.66823e-06 6.67081e-06 1.83705e-06 9.04954e-07 1.72453e-06 8.22052e-06 4.97403e-06 6.70766e-06 3.52912e-06 5.88242e-07 9.18622e-06 6.62626e-06 4.26446e-06 5.70104e-06 1.96058e-06 5.31957e-06 8.31475e-07 4.55907e-06 5.94729e-06 2.13683e-06 8.35499e-06 1.56759e-06 5.5171e-06 6.06839e-06 3.22011e-06 7.09395e-06 3.45212e-06 3.2336e-06 5.45041e-06 8.38488e-06 9.07816e-06 2.83964e-06 6.35465e-07 1.57675e-06 4.79348e-06 1.993e-06 6.88093e-06 7.93175e-06 1.93472e-06 8.18505e-06 9.34971e-06 5.85221e-06 9.1977e-06 7.85025e-07 1.93825e-06 3.57109e-06 1.76778e-06 9.24442e-06 3.96494e-06 9.01064e-07 1.75445e-06 4.12096e-06 1.9979e-06 7.02453e-06 7.67396e-07 4.56795e-06 8.35496e-07 4.66217e-06 3.13172e-06 1.85938e-06 8.43323e-07 7.17466e-06 8.62093e-06 9.33803e-06 4.7998e-06 4.43973e-06 3.33579e-06 7.7122e-06 6.85757e-07 7.77706e-06 2.1644e-06 6.13469e-06 2.02159e-06 4.57683e-06 5.76406e-06 4.62452e-06 9.27714e-06 9.15936e-06 7.96711e-06 5.47602e-06 6.22549e-06 9.23849e-06 3.48405e-06 5.82569e-06 8.22133e-06 8.04258e-07 5.49729e-06 4.94382e-06 1.90926e-06 3.21513e-06 3.21405e-06 8.67292e-06 4.28756e-06 5.89466e-06 1.00495e-06 1.99917e-06 7.83705e-06 3.88454e-06 7.79409e-07 3.08955e-06 9.42953e-06 9.27028e-06 7.77303e-07 7.40261e-07 8.2434e-06 7.3808e-06 7.86508e-06 7.92532e-07 5.64299e-06 9.23364e-06 4.18115e-06 1.66982e-06 5.31421e-06 2.48556e-06 1.74501e-06 9.21813e-06 4.44571e-06 4.84559e-06 4.8918e-06 6.81436e-06 5.84843e-06 8.19156e-06 9.24877e-06 7.56986e-06 6.23294e-06 2.00315e-06 6.44068e-06 9.22007e-06 8.22958e-06 3.93134e-06 6.59481e-07 7.2788e-07 4.45283e-07 5.9765e-06 8.19631e-06 1.4194e-06 1.59401e-06 1.82554e-06 6.64696e-06 5.55666e-06 9.04555e-06 2.76724e-06 8.19671e-06 3.10224e-06 9.21316e-06 5.03863e-06 1.87328e-06 6.81877e-06 4.86482e-06 5.88775e-07 9.2198e-06 8.19915e-06 7.95533e-06 9.24124e-06 6.22763e-07 7.79733e-06 4.74757e-07 1.77068e-06 7.6914e-07 2.12942e-06 8.28793e-06 7.7149e-06 9.35799e-06 6.96935e-07 1.7746e-06 7.9879e-07 5.26476e-06 6.06894e-06 7.66829e-06 9.28339e-06 1.88376e-06 3.28191e-06 1.75086e-06 1.96633e-06 5.12227e-06 1.90714e-06 7.95424e-06 2.60292e-06 8.09997e-06 6.05366e-06 4.47615e-07 7.94685e-06 3.96489e-06 6.09363e-06 9.61836e-06 8.25907e-06 6.50453e-06 7.0583e-06 7.14895e-06 4.05313e-06 1.7505e-06 7.13638e-06 7.33651e-06 9.54631e-06 4.74404e-06 6.31812e-07 7.09966e-06 6.2598e-06 2.92729e-06 6.60277e-06 8.36549e-07 9.31178e-06